<UPF version="2.0.1">
  <PP_INFO>
    Generated using "atomic" code by A. Dal Corso  (Quantum ESPRESSO distribution)
    Author: anonymous
    Generation date: 24Feb2012
    Pseudopotential type: NC
    Element: Ti
    Functional: PBE

    Suggested minimum cutoff for wavefunctions: 138. Ry
    Suggested minimum cutoff for charge density: 551. Ry
    The Pseudo was generated with a Scalar-Relativistic Calculation
    L component and cutoff radius for Local Potential:  0   2.6000
    Pseudopotential contains additional information for GIPAW reconstruction.

    Valence configuration: 
    nl pn  l   occ       Rcut    Rcut US       E pseu
    4P  2  1  0.00      2.600      2.600    -0.107768
    3D  3  2  2.00      1.300      1.300    -0.313017
    4S  1  0  2.00      3.212      3.212    -0.328298
    Generation configuration:
    4P  2  1  0.00      2.600      2.600    -0.107768
    3D  3  2  2.00      1.300      1.300    -0.313017
    4S  1  0  2.00      2.600      2.600    -0.328298

    Pseudization used: rrkj
  </PP_INFO>
  <!--                               -->
  <!-- END OF HUMAN READABLE SECTION -->
  <!--                               -->
  <PP_HEADER generated='Generated using "atomic" code by A. Dal Corso  (Quantum ESPRESSO distribution)'
             author="anonymous"
             date="24Feb2012"
             comment=""
             element="Ti"
             pseudo_type="NC"
             relativistic="scalar"
             is_ultrasoft="F"
             is_paw="F"
             is_coulomb="F"
             has_so="F"
             has_wfc="F"
             has_gipaw="T"
             paw_as_gipaw="F"
             core_correction="T"
             functional="PBE"
             z_valence="4.000000000000000E+000"
             total_psenergy="-7.992862659291960E+000"
             wfc_cutoff="1.378181162477456E+002"
             rho_cutoff="5.512724649909826E+002"
             l_max="2"
             l_max_rho="4"
             l_local="0"
             mesh_size="1177"
             number_of_wfc="3"
             number_of_proj="2"/>
  <PP_MESH dx="1.250000000000000E-002" mesh="1177" xmin="-7.000000000000000E+000" rmax="1.000000000000000E+002"
zmesh="2.200000000000000E+001">
    <PP_R type="real" size="1177" columns="4">
 4.144918025247801E-005  4.197054675768283E-005  4.249847124620829E-005  4.303303620732972E-005 
 4.357432516790999E-005  4.412242270545040E-005  4.467741446130630E-005  4.523938715406870E-005 
 4.580842859311411E-005  4.638462769232521E-005  4.696807448398350E-005  4.755886013283720E-005 
 4.815707695034590E-005  4.876281840910440E-005  4.937617915744808E-005  4.999725503424174E-005 
 5.062614308385468E-005  5.126294157132418E-005  5.190774999770942E-005  5.256066911563899E-005 
 5.322180094505337E-005  5.389124878914604E-005  5.456911725050459E-005  5.525551224745522E-005 
 5.595054103061278E-005  5.665431219963862E-005  5.736693572020975E-005  5.808852294120112E-005 
 5.881918661208400E-005  5.955904090054363E-005  6.030820141031780E-005  6.106678519926029E-005 
 6.183491079763155E-005  6.261269822661895E-005  6.340026901709087E-005  6.419774622858552E-005 
 6.500525446853975E-005  6.582291991175889E-005  6.665087032013197E-005  6.748923506259487E-005 
 6.833814513534421E-005  6.919773318230599E-005  7.006813351586139E-005  7.094948213783329E-005 
 7.184191676073714E-005  7.274557682929838E-005  7.366060354224122E-005  7.458713987435119E-005 
 7.552533059881518E-005  7.647532230984278E-005  7.743726344557155E-005  7.841130431126101E-005 
 7.939759710277816E-005  8.039629593037822E-005  8.140755684278499E-005  8.243153785157340E-005 
 8.346839895585943E-005  8.451830216730003E-005  8.558141153540805E-005  8.665789317318528E-005 
 8.774791528307768E-005  8.885164818325759E-005  8.996926433423621E-005  9.110093836581087E-005 
 9.224684710435155E-005  9.340716960042995E-005  9.458208715679680E-005  9.577178335671064E-005 
 9.697644409262310E-005  9.819625759522520E-005  9.943141446285842E-005  1.006821076912962E-004 
 1.019485327039001E-004  1.032308873821549E-004  1.045293720965880E-004  1.058441897380779E-004 
 1.071755457495560E-004  1.085236481581079E-004  1.098887076074774E-004  1.112709373909810E-004 
 1.126705534848345E-004  1.140877745818999E-004  1.155228221258572E-004  1.169759203458045E-004 
 1.184472962912954E-004  1.199371798678146E-004  1.214458038727023E-004  1.229734040315285E-004 
 1.245202190349258E-004  1.260864905758859E-004  1.276724633875233E-004  1.292783852813167E-004 
 1.309045071858292E-004  1.325510831859167E-004  1.342183705624294E-004  1.359066298324118E-004 
 1.376161247898098E-004  1.393471225466883E-004  1.410998935749686E-004  1.428747117486900E-004 
 1.446718543868030E-004  1.464916022965012E-004  1.483342398170976E-004  1.502000548644537E-004 
 1.520893389759669E-004  1.540023873561233E-004  1.559394989226243E-004  1.579009763530933E-004 
 1.598871261323695E-004  1.618982586003968E-004  1.639346880007150E-004  1.659967325295611E-004 
 1.680847143855878E-004  1.701989598202082E-004  1.723397991885731E-004  1.745075670011892E-004 
 1.767026019761877E-004  1.789252470922492E-004  1.811758496421950E-004  1.834547612872526E-004 
 1.857623381120030E-004  1.880989406800198E-004  1.904649340902082E-004  1.928606880338518E-004 
 1.952865768523791E-004  1.977429795958531E-004  2.002302800822002E-004  2.027488669571819E-004 
 2.052991337551212E-004  2.078814789603943E-004  2.104963060696930E-004  2.131440236550732E-004 
 2.158250454277945E-004  2.185397903029630E-004  2.212886824649892E-004  2.240721514338660E-004 
 2.268906321322826E-004  2.297445649535824E-004  2.326343958305751E-004  2.355605763052148E-004 
 2.385235635991538E-004  2.415238206851853E-004  2.445618163595828E-004  2.476380253153511E-004 
 2.507529282163987E-004  2.539070117726409E-004  2.571007688160504E-004  2.603346983776630E-004 
 2.636093057655519E-004  2.669251026437842E-004  2.702826071123680E-004  2.736823437882072E-004 
 2.771248438870744E-004  2.806106453066136E-004  2.841402927103891E-004  2.877143376129885E-004 
 2.913333384661993E-004  2.949978607462676E-004  2.987084770422551E-004  3.024657671455079E-004 
 3.062703181402484E-004  3.101227244953104E-004  3.140235881570241E-004  3.179735186432732E-004 
 3.219731331387330E-004  3.260230565913045E-004  3.301239218097677E-004  3.342763695626562E-004 
 3.384810486783789E-004  3.427386161466034E-004  3.470497372209073E-004  3.514150855227305E-004 
 3.558353431466262E-004  3.603112007668407E-004  3.648433577452346E-004  3.694325222405551E-004 
 3.740794113190923E-004  3.787847510667186E-004  3.835492767023423E-004  3.883737326927885E-004 
 3.932588728691198E-004  3.982054605444285E-004  4.032142686331026E-004  4.082860797715962E-004 
 4.134216864407192E-004  4.186218910894609E-004  4.238875062603785E-004  4.292193547165551E-004 
 4.346182695701593E-004  4.400850944126223E-004  4.456206834464468E-004  4.512259016186824E-004 
 4.569016247560721E-004  4.626487397019031E-004  4.684681444545796E-004  4.743607483079320E-004 
 4.803274719933025E-004  4.863692478234058E-004  4.924870198380070E-004  4.986817439514312E-004 
 5.049543881019231E-004  5.113059324028938E-004  5.177373692960626E-004  5.242497037065282E-004 
 5.308439531997934E-004  5.375211481407554E-004  5.442823318547100E-004  5.511285607903680E-004 
 5.580609046849289E-004  5.650804467312315E-004  5.721882837469999E-004  5.793855263462305E-004 
 5.866732991127216E-004  5.940527407757945E-004  6.015250043882246E-004  6.090912575064013E-004 
 6.167526823727698E-004  6.245104761005521E-004  6.323658508608008E-004  6.403200340718060E-004 
 6.483742685908752E-004  6.565298129085398E-004  6.647879413451919E-004  6.731499442501999E-004 
 6.816171282035328E-004  6.901908162199066E-004  6.988723479555197E-004  7.076630799173677E-004 
 7.165643856752040E-004  7.255776560761647E-004  7.347042994620853E-004  7.439457418895648E-004 
 7.533034273527841E-004  7.627788180091345E-004  7.723733944076856E-004  7.820886557205174E-004 
 7.919261199769778E-004  8.018873243008710E-004  8.119738251506379E-004  8.221871985625597E-004 
 8.325290403970082E-004  8.430009665878129E-004  8.536046133947457E-004  8.643416376591933E-004 
 8.752137170630423E-004  8.862225503908181E-004  8.973698577951265E-004  9.086573810654287E-004 
 9.200868839001996E-004  9.316601521825118E-004  9.433789942590792E-004  9.552452412228195E-004 
 9.672607471989627E-004  9.794273896347623E-004  9.917470695928533E-004  1.004221712048293E-003 
 1.016853266189346E-003  1.029643705722044E-003  1.042595029178588E-003  1.055709260229617E-003 
 1.068988448000414E-003  1.082434667391085E-003  1.096050019400767E-003  1.109836631455911E-003 
 1.123796657742700E-003  1.137932279543643E-003  1.152245705578407E-003  1.166739172348929E-003 
 1.181414944488879E-003  1.196275315117514E-003  1.211322606197977E-003  1.226559168900113E-003 
 1.241987383967844E-003  1.257609662091163E-003  1.273428444282810E-003  1.289446202259687E-003 
 1.305665438829065E-003  1.322088688279658E-003  1.338718516777604E-003  1.355557522767442E-003 
 1.372608337378114E-003  1.389873624834095E-003  1.407356082871677E-003  1.425058443160495E-003 
 1.442983471730361E-003  1.461133969403458E-003  1.479512772231974E-003  1.498122751941244E-003 
 1.516966816378459E-003  1.536047909967026E-003  1.555369014166638E-003  1.574933147939137E-003 
 1.594743368220229E-003  1.614802770397135E-003  1.635114488792258E-003  1.655681697152919E-003 
 1.676507609147273E-003  1.697595478866438E-003  1.718948601332959E-003  1.740570313015666E-003 
 1.762463992351000E-003  1.784633060270901E-003  1.807080980737333E-003  1.829811261283539E-003 
 1.852827453562102E-003  1.876133153899889E-003  1.899732003859996E-003  1.923627690810742E-003 
 1.947823948501827E-003  1.972324557647745E-003  1.997133346518519E-003  2.022254191537888E-003 
 2.047691017888992E-003  2.073447800127700E-003  2.099528562803642E-003  2.125937381089045E-003 
 2.152678381415497E-003  2.179755742118703E-003  2.207173694091362E-003  2.234936521444254E-003 
 2.263048562175634E-003  2.291514208849062E-003  2.320337909279747E-003  2.349524167229519E-003 
 2.379077543110563E-003  2.409002654697991E-003  2.439304177851370E-003  2.469986847245341E-003 
 2.501055457109420E-003  2.532514861977109E-003  2.564369977444425E-003  2.596625780937967E-003 
 2.629287312492658E-003  2.662359675539253E-003  2.695848037701760E-003  2.729757631604907E-003 
 2.764093755691726E-003  2.798861775051465E-003  2.834067122257884E-003  2.869715298218108E-003 
 2.905811873032162E-003  2.942362486863298E-003  2.979372850819289E-003  3.016848747844802E-003 
 3.054796033624989E-003  3.093220637500463E-003  3.132128563393754E-003  3.171525890747439E-003 
 3.211418775474074E-003  3.251813450918055E-003  3.292716228829612E-003  3.334133500351006E-003 
 3.376071737015178E-003  3.418537491756929E-003  3.461537399936833E-003  3.505078180378032E-003 
 3.549166636416053E-003  3.593809656961849E-003  3.639014217578208E-003  3.684787381569692E-003 
 3.731136301086309E-003  3.778068218241025E-003  3.825590466241381E-003  3.873710470535312E-003 
 3.922435749971386E-003  3.971773917973654E-003  4.021732683731242E-003  4.072319853402942E-003 
 4.123543331336934E-003  4.175411121305859E-003  4.227931327757430E-003  4.281112157080759E-003 
 4.334961918888620E-003  4.389489027315857E-003  4.444702002334093E-003  4.500609471083015E-003 
 4.557220169218352E-003  4.614542942276868E-003  4.672586747058475E-003  4.731360653025756E-003 
 4.790873843721106E-003  4.851135618201646E-003  4.912155392492241E-003  4.973942701056771E-003 
 5.036507198287907E-003  5.099858660015623E-003  5.164006985034716E-003  5.228962196651473E-003 
 5.294734444249865E-003  5.361334004877390E-003  5.428771284850893E-003  5.497056821382577E-003 
 5.566201284226453E-003  5.636215477345514E-003  5.707110340599878E-003  5.778896951456162E-003 
 5.851586526718374E-003  5.925190424280532E-003  5.999720144901375E-003  6.075187334001387E-003 
 6.151603783482396E-003  6.228981433570113E-003  6.307332374679786E-003  6.386668849305372E-003 
 6.467003253932438E-003  6.548348140975149E-003  6.630716220737610E-003  6.714120363399856E-003 
 6.798573601028869E-003  6.884089129614849E-003  6.970680311133112E-003  7.058360675631955E-003 
 7.147143923346712E-003  7.237043926840469E-003  7.328074733171675E-003  7.420250566089018E-003 
 7.513585828253935E-003  7.608095103491025E-003  7.703793159066827E-003  7.800694947997220E-003 
 7.898815611383871E-003  7.998170480780069E-003  8.098775080586294E-003  8.200645130475949E-003 
 8.303796547851582E-003  8.408245450332015E-003  8.514008158270775E-003  8.621101197306151E-003 
 8.729541300943373E-003  8.839345413169258E-003  8.950530691099729E-003  9.063114507660690E-003 
 9.177114454302521E-003  9.292548343748824E-003  9.409434212779670E-003  9.527790325049900E-003 
 9.647635173942869E-003  9.768987485460030E-003  9.891866221146954E-003  1.001629058105609E-002 
 1.014228000674681E-002  1.026985418432322E-002  1.039903304751012E-002  1.052983678076768E-002 
 1.066228582244536E-002  1.079640086797537E-002  1.093220287310646E-002  1.106971305717822E-002 
 1.120895290643666E-002  1.134994417739153E-002  1.149270890021575E-002  1.163726938218773E-002 
 1.178364821117689E-002  1.193186825917307E-002  1.208195268586031E-002  1.223392494223563E-002 
 1.238780877427330E-002  1.254362822663515E-002  1.270140764642761E-002  1.286117168700605E-002 
 1.302294531182682E-002  1.318675379834797E-002  1.335262274197877E-002  1.352057806007912E-002 
 1.369064599600919E-002  1.386285312322997E-002  1.403722634945545E-002  1.421379292085699E-002 
 1.439258042632061E-002  1.457361680175777E-002  1.475693033447044E-002  1.494254966757110E-002 
 1.513050380445817E-002  1.532082211334793E-002  1.551353433186336E-002  1.570867057168066E-002 
 1.590626132323434E-002  1.610633746048131E-002  1.630893024572508E-002  1.651407133450053E-002 
 1.672179278052011E-002  1.693212704068241E-002  1.714510698014350E-002  1.736076587745224E-002 
 1.757913742975006E-002  1.780025575803632E-002  1.802415541249968E-002  1.825087137791667E-002 
 1.848043907911815E-002  1.871289438652449E-002  1.894827362175038E-002  1.918661356328025E-002 
 1.942795145221485E-002  1.967232499809034E-002  1.991977238477043E-002  2.017033227641272E-002 
 2.042404382351008E-002  2.068094666900790E-002  2.094108095449845E-002  2.120448732649312E-002 
 2.147120694277339E-002  2.174128147882201E-002  2.201475313433466E-002  2.229166463981393E-002 
 2.257205926324590E-002  2.285598081686096E-002  2.314347366397951E-002  2.343458272594383E-002 
 2.372935348913710E-002  2.402783201209080E-002  2.433006493268138E-002  2.463609947541760E-002 
 2.494598345881939E-002  2.525976530288962E-002  2.557749403667982E-002  2.589921930595104E-002 
 2.622499138093121E-002  2.655486116416982E-002  2.688888019849161E-002  2.722710067505026E-002 
 2.756957544148334E-002  2.791635801016991E-002  2.826750256659183E-002  2.862306397780047E-002 
 2.898309780098972E-002  2.934766029217691E-002  2.971680841499307E-002  3.009059984958337E-002 
 3.046909300161998E-002  3.085234701142795E-002  3.124042176322600E-002  3.163337789448373E-002 
 3.203127680539608E-002  3.243418066847741E-002  3.284215243827603E-002  3.325525586121099E-002 
 3.367355548553264E-002  3.409711667140827E-002  3.452600560113495E-002  3.496028928948050E-002 
 3.540003559415477E-002  3.584531322641258E-002  3.629619176178989E-002  3.675274165097513E-002 
 3.721503423081738E-002  3.768314173547274E-002  3.815713730769125E-002  3.863709501024538E-002 
 3.912308983750264E-002  3.961519772714356E-002  4.011349557202706E-002  4.061806123220527E-002 
 4.112897354708909E-002  4.164631234776719E-002  4.217015846947970E-002  4.270059376424890E-002 
 4.323770111366882E-002  4.378156444185555E-002  4.433226872856060E-002  4.488990002244918E-002 
 4.545454545454546E-002  4.602629325184702E-002  4.660523275111042E-002  4.719145441281025E-002 
 4.778504983527385E-002  4.838611176899361E-002  4.899473413111963E-002  4.961101202013419E-002 
 5.023504173071128E-002  5.086692076876278E-002  5.150674786667391E-002  5.215462299873055E-002 
 5.281064739674016E-002  5.347492356584959E-002  5.414755530056177E-002  5.482864770095366E-002 
 5.551830718909864E-002  5.621664152569477E-002  5.692375982690296E-002  5.763977258139638E-002 
 5.836479166762461E-002  5.909893037129506E-002  5.984230340307373E-002  6.059502691650924E-002 
 6.135721852618199E-002  6.212899732608165E-002  6.291048390821599E-002  6.370180038145336E-002 
 6.450307039060264E-002  6.531441913573298E-002  6.613597339173644E-002  6.696786152813707E-002 
 6.781021352914868E-002  6.866316101398516E-002  6.952683725742637E-002  7.040137721064242E-002 
 7.128691752228040E-002  7.218359655981564E-002  7.309155443117198E-002  7.401093300661413E-002 
 7.494187594091492E-002  7.588452869580196E-002  7.683903856268599E-002  7.780555468567570E-002 
 7.878422808488166E-002  7.977521168001357E-002  8.077866031427448E-002  8.179473077855495E-002 
 8.282358183593226E-002  8.386537424647732E-002  8.492027079237376E-002  8.598843630335319E-002 
 8.707003768244986E-002  8.816524393207976E-002  8.927422618044766E-002  9.039715770828599E-002 
 9.153421397593077E-002  9.268557265073708E-002  9.385141363484034E-002  9.503191909326623E-002 
 9.622727348239431E-002  9.743766357878000E-002  9.866327850833834E-002  9.990430977589558E-002 
 1.011609512951122E-001  1.024333994187822E-001  1.037218529695138E-001  1.050265132707957E-001 
 1.063475841784542E-001  1.076852721125064E-001  1.090397860894135E-001  1.104113377547404E-001 
 1.118001414162250E-001  1.132064140772651E-001  1.146303754708250E-001  1.160722480937694E-001 
 1.175322572416294E-001  1.190106310438046E-001  1.205076004992095E-001  1.220233995123669E-001 
 1.235582649299566E-001  1.251124365778230E-001  1.266861572984478E-001  1.282796729888954E-001 
 1.298932326392348E-001  1.315270883714437E-001  1.331814954788048E-001  1.348567124657940E-001 
 1.365530010884742E-001  1.382706263953939E-001  1.400098567690014E-001  1.417709639675816E-001 
 1.435542231677167E-001  1.453599130072852E-001  1.471883156289983E-001  1.490397167244852E-001 
 1.509144055789341E-001  1.528126751162923E-001  1.547348219450372E-001  1.566811464045217E-001 
 1.586519526119019E-001  1.606475485096579E-001  1.626682459137082E-001  1.647143605621337E-001 
 1.667862121645112E-001  1.688841244518683E-001  1.710084252272688E-001  1.731594464170301E-001 
 1.753375241225897E-001  1.775429986730207E-001  1.797762146782081E-001  1.820375210826967E-001 
 1.843272712202126E-001  1.866458228688732E-001  1.889935383070913E-001  1.913707843701800E-001 
 1.937779325076737E-001  1.962153588413657E-001  1.986834442240799E-001  2.011825742991790E-001 
 2.037131395608211E-001  2.062755354149776E-001  2.088701622412132E-001  2.114974254552486E-001 
 2.141577355723066E-001  2.168515082712547E-001  2.195791644595584E-001  2.223411303390457E-001 
 2.251378374725052E-001  2.279697228511165E-001  2.308372289627310E-001  2.337408038610133E-001 
 2.366809012354477E-001  2.396579804822314E-001  2.426725067760536E-001  2.457249511427803E-001 
 2.488157905330548E-001  2.519455078968194E-001  2.551145922587798E-001  2.583235387948158E-001 
 2.615728489093513E-001  2.648630303137037E-001  2.681945971054099E-001  2.715680698485601E-001 
 2.749839756551342E-001  2.784428482673630E-001  2.819452281411305E-001  2.854916625304166E-001 
 2.890827055728105E-001  2.927189183760938E-001  2.964008691059142E-001  3.001291330745652E-001 
 3.039042928308759E-001  3.077269382512397E-001  3.115976666317811E-001  3.155170827816834E-001 
 3.194857991176955E-001  3.235044357598180E-001  3.275736206282029E-001  3.316939895412653E-001 
 3.358661863150295E-001  3.400908628637312E-001  3.443686793016749E-001  3.487003040463831E-001 
 3.530864139230353E-001  3.575276942702223E-001  3.620248390470355E-001  3.665785509414943E-001 
 3.711895414803476E-001  3.758585311402488E-001  3.805862494603302E-001  3.853734351561993E-001 
 3.902208362353589E-001  3.951292101140909E-001  4.000993237358006E-001  4.051319536908516E-001 
 4.102278863379150E-001  4.153879179268331E-001  4.206128547230403E-001  4.259035131335425E-001 
 4.312607198344784E-001  4.366853119002960E-001  4.421781369345404E-001  4.477400532022991E-001 
 4.533719297643058E-001  4.590746466127297E-001  4.648490948086823E-001  4.706961766214407E-001 
 4.766168056694351E-001  4.826119070630005E-001  4.886824175489251E-001  4.948292856568249E-001 
 5.010534718473457E-001  5.073559486622438E-001  5.137377008763450E-001  5.201997256514147E-001 
 5.267430326919729E-001  5.333686444030552E-001  5.400775960499724E-001  5.468709359200701E-001 
 5.537497254865215E-001  5.607150395741939E-001  5.677679665275824E-001  5.749096083808737E-001 
 5.821410810301383E-001  5.894635144076878E-001  5.968780526586377E-001  6.043858543196721E-001 
 6.119880925000776E-001  6.196859550650348E-001  6.274806448212314E-001  6.353733797048021E-001 
 6.433653929716275E-001  6.514579333900431E-001  6.596522654359512E-001  6.679496694904064E-001 
 6.763514420396750E-001  6.848588958778089E-001  6.934733603117809E-001  7.021961813691829E-001 
 7.110287220085533E-001  7.199723623323379E-001  7.290284998025307E-001  7.381985494590390E-001 
 7.474839441407756E-001  7.568861347095520E-001  7.664065902767749E-001  7.760467984329938E-001 
 7.858082654803482E-001  7.956925166679223E-001  8.057010964300745E-001  8.158355686277571E-001 
 8.260975167928666E-001  8.364885443756851E-001  8.470102749954098E-001  8.576643526938582E-001 
 8.684524421923485E-001  8.793762291518100E-001  8.904374204361827E-001  9.016377443791060E-001 
 9.129789510539849E-001  9.244628125474376E-001  9.360911232361836E-001  9.478657000674289E-001 
 9.597883828427558E-001  9.718610345056065E-001  9.840855414323670E-001  9.964638137271123E-001 
 1.008997785520076E+000  1.021689415269847E+000  1.034540686069397E+000  1.047553605955936E+000 
 1.060730208224669E+000  1.074072551746512E+000  1.087582721289780E+000  1.101262827845954E+000 
 1.115115008959517E+000  1.129141429061947E+000  1.143344279809927E+000  1.157725780427777E+000 
 1.172288178054230E+000  1.187033748093545E+000  1.201964794571037E+000  1.217083650493098E+000 
 1.232392678211723E+000  1.247894269793641E+000  1.263590847394077E+000  1.279484863635212E+000 
 1.295578801989423E+000  1.311875177167320E+000  1.328376535510679E+000  1.345085455390317E+000 
 1.362004547608956E+000  1.379136455809180E+000  1.396483856886497E+000  1.414049461407621E+000 
 1.431836014033999E+000  1.449846293950659E+000  1.468083115300487E+000  1.486549327623917E+000 
 1.505247816304196E+000  1.524181503018226E+000  1.543353346193071E+000  1.562766341468238E+000 
 1.582423522163730E+000  1.602327959754025E+000  1.622482764347996E+000  1.642891085174860E+000 
 1.663556111076274E+000  1.684481071004573E+000  1.705669234527318E+000  1.727123912338173E+000 
 1.748848456774188E+000  1.770846262339637E+000  1.793120766236389E+000  1.815675448900997E+000 
 1.838513834548520E+000  1.861639491723173E+000  1.885056033855946E+000  1.908767119829182E+000 
 1.932776454548308E+000  1.957087789520725E+000  1.981704923441978E+000  2.006631702789332E+000 
 2.031872022422766E+000  2.057429826193581E+000  2.083309107560614E+000  2.109513910214226E+000 
 2.136048328708152E+000  2.162916509099259E+000  2.190122649595401E+000  2.217671001211384E+000 
 2.245565868433191E+000  2.273811609890582E+000  2.302412639038121E+000  2.331373424844805E+000 
 2.360698492492340E+000  2.390392424082203E+000  2.420459859351622E+000  2.450905496398526E+000 
 2.481734092415647E+000  2.512950464433841E+000  2.544559490074734E+000  2.576566108312903E+000 
 2.608975320247556E+000  2.641792189884000E+000  2.675021844924884E+000  2.708669477571408E+000 
 2.742740345334639E+000  2.777239771856971E+000  2.812173147743995E+000  2.847545931406769E+000 
 2.883363649914698E+000  2.919631899859179E+000  2.956356348228047E+000  2.993542733291077E+000 
 3.031196865496601E+000  3.069324628379370E+000  3.107931979479920E+000  3.147024951275393E+000 
 3.186609652122175E+000  3.226692267210315E+000  3.267279059529958E+000  3.308376370849988E+000 
 3.349990622708903E+000  3.392128317418223E+000  3.434796039078485E+000  3.478000454607994E+000 
 3.521748314784590E+000  3.566046455300416E+000  3.610901797830060E+000  3.656321351112059E+000 
 3.702312212044007E+000  3.748881566791505E+000  3.796036691910967E+000  3.843784955486636E+000 
 3.892133818281849E+000  3.941090834904768E+000  3.990663654988861E+000  4.040860024388106E+000 
 4.091687786387356E+000  4.143154882927838E+000  4.195269355848086E+000  4.248039348140534E+000 
 4.301473105223825E+000  4.355578976231222E+000  4.410365415315157E+000  4.465840982968185E+000 
 4.522014347360633E+000  4.578894285694960E+000  4.636489685577259E+000  4.694809546405948E+000 
 4.753862980777919E+000  4.813659215912455E+000  4.874207595092934E+000  4.935517579126799E+000 
 4.997598747823801E+000  5.060460801492834E+000  5.124113562457698E+000  5.188566976591775E+000 
 5.253831114872167E+000  5.319916174953268E+000  5.386832482760151E+000  5.454590494102071E+000 
 5.523200796306135E+000  5.592674109871661E+000  5.663021290145248E+000  5.734253329016917E+000 
 5.806381356637684E+000  5.879416643158589E+000  5.953370600491755E+000  6.028254784093485E+000 
 6.104080894769797E+000  6.180860780504778E+000  6.258606438311760E+000  6.337330016107962E+000 
 6.417043814612589E+000  6.497760289268817E+000  6.579492052190051E+000  6.662251874130508E+000 
 6.746052686480755E+000  6.830907583288226E+000  6.916829823303164E+000  7.003832832050404E+000 
 7.091930203927050E+000  7.181135704326703E+000  7.271463271790304E+000  7.362927020184014E+000 
 7.455541240904634E+000  7.549320405112550E+000  7.644279165992975E+000  7.740432361045507E+000 
 7.837795014402471E+000  7.936382339176566E+000  8.036209739837840E+000  8.137292814620759E+000 
 8.239647357961427E+000  8.343289362965455E+000  8.448235023907015E+000  8.554500738759113E+000 
 8.662103111755908E+000  8.771058955987119E+000  8.881385296025044E+000  8.993099370584805E+000 
 9.106218635217809E+000  9.220760765039314E+000  9.336743657490153E+000  9.454185435133212E+000 
 9.573104448485216E+000  9.693519278883910E+000  9.815448741391551E+000  9.938911887734735E+000 
 1.006392800928123E+001  1.019051664005442E+001  1.031869755978537E+001  1.044849079700358E+001 
 1.057991663216647E+001  1.071299560082812E+001  1.084774849684818E+001  1.098419637564076E+001 
 1.112236055746456E+001  1.126226263075411E+001  1.140392445549293E+001  1.154736816662942E+001 
 1.169261617753523E+001  1.183969118350758E+001  1.198861616531542E+001  1.213941439279010E+001 
 1.229210942846150E+001  1.244672513123957E+001  1.260328566014245E+001  1.276181547807134E+001 
 1.292233935563277E+001  1.308488237500924E+001  1.324946993387819E+001  1.341612774938056E+001 
 1.358488186213912E+001  1.375575864032727E+001  1.392878478378930E+001  1.410398732821211E+001 
 1.428139364934974E+001  1.446103146730082E+001  1.464292885083984E+001  1.482711422180311E+001 
 1.501361635952949E+001  1.520246440535750E+001  1.539368786717853E+001  1.558731662404747E+001 
 1.578338093085159E+001  1.598191142303767E+001  1.618293912139905E+001  1.638649543692262E+001 
 1.659261217569677E+001  1.680132154388133E+001  1.701265615273964E+001  1.722664902373434E+001 
 1.744333359368692E+001  1.766274372000222E+001  1.788491368595893E+001  1.810987820606618E+001 
 1.833767243148796E+001  1.856833195553548E+001  1.880189281922858E+001  1.903839151692747E+001 
 1.927786500203475E+001  1.952035069276972E+001  1.976588647801494E+001  2.001451072323632E+001 
 2.026626227647807E+001  2.052118047443252E+001  2.077930514858677E+001  2.104067663144635E+001 
 2.130533576283714E+001  2.157332389628695E+001  2.184468290548679E+001  2.211945519083396E+001 
 2.239768368605713E+001  2.267941186492464E+001  2.296468374803770E+001  2.325354390970838E+001 
 2.354603748492464E+001  2.384221017640275E+001  2.414210826172823E+001  2.444577860058715E+001 
 2.475326864208770E+001  2.506462643217449E+001  2.537990062113573E+001  2.569914047120478E+001 
 2.602239586425781E+001  2.634971730960757E+001  2.668115595189586E+001  2.701676357908492E+001 
 2.735659263054919E+001  2.770069620526947E+001  2.804912807012926E+001  2.840194266831641E+001 
 2.875919512782973E+001  2.912094127009277E+001  2.948723761867632E+001  2.985814140812998E+001 
 3.023371059292554E+001  3.061400385651225E+001  3.099908062048616E+001  3.138900105387519E+001 
 3.178382608254026E+001  3.218361739869543E+001  3.258843747054727E+001  3.299834955205552E+001 
 3.341341769281700E+001  3.383370674807305E+001  3.425928238884369E+001  3.469021111218871E+001 
 3.512656025159772E+001  3.556839798751167E+001  3.601579335797555E+001  3.646881626942632E+001 
 3.692753750761563E+001  3.739202874867011E+001  3.786236257029130E+001  3.833861246309561E+001 
 3.882085284209780E+001  3.930915905833827E+001  3.980360741065663E+001  4.030427515761406E+001 
 4.081124052956447E+001  4.132458274087874E+001  4.184438200232186E+001  4.237071953358583E+001 
 4.290367757598090E+001  4.344333940528534E+001  4.398978934475802E+001  4.454311277831383E+001 
 4.510339616386482E+001  4.567072704683009E+001  4.624519407381414E+001  4.682688700645881E+001 
 4.741589673546837E+001  4.801231529481115E+001  4.861623587610063E+001  4.922775284315619E+001 
 4.984696174674811E+001  5.047395933952750E+001  5.110884359114365E+001  5.175171370355277E+001 
 5.240267012651766E+001  5.306181457330388E+001  5.372925003657235E+001  5.440508080447196E+001 
 5.508941247693538E+001  5.578235198217849E+001  5.648400759340889E+001  5.719448894574348E+001 
 5.791390705333881E+001  5.864237432673811E+001  5.938000459043469E+001  6.012691310065807E+001 
 6.088321656338270E+001  6.164903315256311E+001  6.242448252859965E+001  6.320968585703477E+001 
 6.400476582748614E+001  6.480984667281692E+001  6.562505418854686E+001  6.645051575250905E+001 